+ 0 /NodeList/0/DeviceList/2/$ns3::CsmaNetDevice/TxQueue/Enqueue ns3::EthernetHeader ( length/type=0x86dd, source=00:00:00:00:00:0b, destination=33:33:ff:00:00:0b) ns3::Ipv6Header ((Version 6 Traffic class 0x0 DSCP Default Flow Label 0x0 Payload Length 32 Next Header 58 Hop Limit 255 ):: > ff02::1:ff00:b) ns3::Icmpv6NS (( type = 135 (NS) code = 0 target = fe80::200:ff:fe00:b checksum = 64889)) ns3::Icmpv6OptionLinkLayerAddress (( type = 1 length = 1 L2 Address = 00-06-00:00:00:00:00:0b)) ns3::EthernetTrailer (fcs=0)
- 0 /NodeList/0/DeviceList/2/$ns3::CsmaNetDevice/TxQueue/Dequeue ns3::EthernetHeader ( length/type=0x86dd, source=00:00:00:00:00:0b, destination=33:33:ff:00:00:0b) ns3::Ipv6Header ((Version 6 Traffic class 0x0 DSCP Default Flow Label 0x0 Payload Length 32 Next Header 58 Hop Limit 255 ):: > ff02::1:ff00:b) ns3::Icmpv6NS (( type = 135 (NS) code = 0 target = fe80::200:ff:fe00:b checksum = 64889)) ns3::Icmpv6OptionLinkLayerAddress (( type = 1 length = 1 L2 Address = 00-06-00:00:00:00:00:0b)) ns3::EthernetTrailer (fcs=0)
+ 0 /NodeList/3/DeviceList/2/$ns3::CsmaNetDevice/TxQueue/Enqueue ns3::EthernetHeader ( length/type=0x86dd, source=00:00:00:00:00:0e, destination=33:33:ff:00:00:0e) ns3::Ipv6Header ((Version 6 Traffic class 0x0 DSCP Default Flow Label 0x0 Payload Length 32 Next Header 58 Hop Limit 255 ):: > ff02::1:ff00:e) ns3::Icmpv6NS (( type = 135 (NS) code = 0 target = fe80::200:ff:fe00:e checksum = 62585)) ns3::Icmpv6OptionLinkLayerAddress (( type = 1 length = 1 L2 Address = 00-06-00:00:00:00:00:0e)) ns3::EthernetTrailer (fcs=0)
- 0 /NodeList/3/DeviceList/2/$ns3::CsmaNetDevice/TxQueue/Dequeue ns3::EthernetHeader ( length/type=0x86dd, source=00:00:00:00:00:0e, destination=33:33:ff:00:00:0e) ns3::Ipv6Header ((Version 6 Traffic class 0x0 DSCP Default Flow Label 0x0 Payload Length 32 Next Header 58 Hop Limit 255 ):: > ff02::1:ff00:e) ns3::Icmpv6NS (( type = 135 (NS) code = 0 target = fe80::200:ff:fe00:e checksum = 62585)) ns3::Icmpv6OptionLinkLayerAddress (( type = 1 length = 1 L2 Address = 00-06-00:00:00:00:00:0e)) ns3::EthernetTrailer (fcs=0)
r 1.67e-07 /NodeList/1/DeviceList/2/$ns3::CsmaNetDevice/MacRx ns3::EthernetHeader ( length/type=0x86dd, source=00:00:00:00:00:0b, destination=33:33:ff:00:00:0b) ns3::Ipv6Header ((Version 6 Traffic class 0x0 DSCP Default Flow Label 0x0 Payload Length 32 Next Header 58 Hop Limit 255 ):: > ff02::1:ff00:b) ns3::Icmpv6NS (( type = 135 (NS) code = 0 target = fe80::200:ff:fe00:b checksum = 64889)) ns3::Icmpv6OptionLinkLayerAddress (( type = 1 length = 1 L2 Address = 00-06-00:00:00:00:00:0b)) ns3::EthernetTrailer (fcs=0)
r 1.67e-07 /NodeList/2/DeviceList/2/$ns3::CsmaNetDevice/MacRx ns3::EthernetHeader ( length/type=0x86dd, source=00:00:00:00:00:0b, destination=33:33:ff:00:00:0b) ns3::Ipv6Header ((Version 6 Traffic class 0x0 DSCP Default Flow Label 0x0 Payload Length 32 Next Header 58 Hop Limit 255 ):: > ff02::1:ff00:b) ns3::Icmpv6NS (( type = 135 (NS) code = 0 target = fe80::200:ff:fe00:b checksum = 64889)) ns3::Icmpv6OptionLinkLayerAddress (( type = 1 length = 1 L2 Address = 00-06-00:00:00:00:00:0b)) ns3::EthernetTrailer (fcs=0)
r 1.67e-07 /NodeList/3/DeviceList/2/$ns3::CsmaNetDevice/MacRx ns3::EthernetHeader ( length/type=0x86dd, source=00:00:00:00:00:0b, destination=33:33:ff:00:00:0b) ns3::Ipv6Header ((Version 6 Traffic class 0x0 DSCP Default Flow Label 0x0 Payload Length 32 Next Header 58 Hop Limit 255 ):: > ff02::1:ff00:b) ns3::Icmpv6NS (( type = 135 (NS) code = 0 target = fe80::200:ff:fe00:b checksum = 64889)) ns3::Icmpv6OptionLinkLayerAddress (( type = 1 length = 1 L2 Address = 00-06-00:00:00:00:00:0b)) ns3::EthernetTrailer (fcs=0)
r 1.67e-07 /NodeList/4/DeviceList/2/$ns3::CsmaNetDevice/MacRx ns3::EthernetHeader ( length/type=0x86dd, source=00:00:00:00:00:0b, destination=33:33:ff:00:00:0b) ns3::Ipv6Header ((Version 6 Traffic class 0x0 DSCP Default Flow Label 0x0 Payload Length 32 Next Header 58 Hop Limit 255 ):: > ff02::1:ff00:b) ns3::Icmpv6NS (( type = 135 (NS) code = 0 target = fe80::200:ff:fe00:b checksum = 64889)) ns3::Icmpv6OptionLinkLayerAddress (( type = 1 length = 1 L2 Address = 00-06-00:00:00:00:00:0b)) ns3::EthernetTrailer (fcs=0)
r 1.67e-07 /NodeList/5/DeviceList/2/$ns3::CsmaNetDevice/MacRx ns3::EthernetHeader ( length/type=0x86dd, source=00:00:00:00:00:0b, destination=33:33:ff:00:00:0b) ns3::Ipv6Header ((Version 6 Traffic class 0x0 DSCP Default Flow Label 0x0 Payload Length 32 Next Header 58 Hop Limit 255 ):: > ff02::1:ff00:b) ns3::Icmpv6NS (( type = 135 (NS) code = 0 target = fe80::200:ff:fe00:b checksum = 64889)) ns3::Icmpv6OptionLinkLayerAddress (( type = 1 length = 1 L2 Address = 00-06-00:00:00:00:00:0b)) ns3::EthernetTrailer (fcs=0)
r 1.67e-07 /NodeList/6/DeviceList/2/$ns3::CsmaNetDevice/MacRx ns3::EthernetHeader ( length/type=0x86dd, source=00:00:00:00:00:0b, destination=33:33:ff:00:00:0b) ns3::Ipv6Header ((Version 6 Traffic class 0x0 DSCP Default Flow Label 0x0 Payload Length 32 Next Header 58 Hop Limit 255 ):: > ff02::1:ff00:b) ns3::Icmpv6NS (( type = 135 (NS) code = 0 target = fe80::200:ff:fe00:b checksum = 64889)) ns3::Icmpv6OptionLinkLayerAddress (( type = 1 length = 1 L2 Address = 00-06-00:00:00:00:00:0b)) ns3::EthernetTrailer (fcs=0)
r 1.67e-07 /NodeList/7/DeviceList/2/$ns3::CsmaNetDevice/MacRx ns3::EthernetHeader ( length/type=0x86dd, source=00:00:00:00:00:0b, destination=33:33:ff:00:00:0b) ns3::Ipv6Header ((Version 6 Traffic class 0x0 DSCP Default Flow Label 0x0 Payload Length 32 Next Header 58 Hop Limit 255 ):: > ff02::1:ff00:b) ns3::Icmpv6NS (( type = 135 (NS) code = 0 target = fe80::200:ff:fe00:b checksum = 64889)) ns3::Icmpv6OptionLinkLayerAddress (( type = 1 length = 1 L2 Address = 00-06-00:00:00:00:00:0b)) ns3::EthernetTrailer (fcs=0)
r 1.67e-07 /NodeList/8/DeviceList/2/$ns3::CsmaNetDevice/MacRx ns3::EthernetHeader ( length/type=0x86dd, source=00:00:00:00:00:0b, destination=33:33:ff:00:00:0b) ns3::Ipv6Header ((Version 6 Traffic class 0x0 DSCP Default Flow Label 0x0 Payload Length 32 Next Header 58 Hop Limit 255 ):: > ff02::1:ff00:b) ns3::Icmpv6NS (( type = 135 (NS) code = 0 target = fe80::200:ff:fe00:b checksum = 64889)) ns3::Icmpv6OptionLinkLayerAddress (( type = 1 length = 1 L2 Address = 00-06-00:00:00:00:00:0b)) ns3::EthernetTrailer (fcs=0)
r 1.67e-07 /NodeList/9/DeviceList/2/$ns3::CsmaNetDevice/MacRx ns3::EthernetHeader ( length/type=0x86dd, source=00:00:00:00:00:0b, destination=33:33:ff:00:00:0b) ns3::Ipv6Header ((Version 6 Traffic class 0x0 DSCP Default Flow Label 0x0 Payload Length 32 Next Header 58 Hop Limit 255 ):: > ff02::1:ff00:b) ns3::Icmpv6NS (( type = 135 (NS) code = 0 target = fe80::200:ff:fe00:b checksum = 64889)) ns3::Icmpv6OptionLinkLayerAddress (( type = 1 length = 1 L2 Address = 00-06-00:00:00:00:00:0b)) ns3::EthernetTrailer (fcs=0)
r 1.167e-06 /NodeList/0/DeviceList/2/$ns3::CsmaNetDevice/MacRx ns3::EthernetHeader ( length/type=0x86dd, source=00:00:00:00:00:0e, destination=33:33:ff:00:00:0e) ns3::Ipv6Header ((Version 6 Traffic class 0x0 DSCP Default Flow Label 0x0 Payload Length 32 Next Header 58 Hop Limit 255 ):: > ff02::1:ff00:e) ns3::Icmpv6NS (( type = 135 (NS) code = 0 target = fe80::200:ff:fe00:e checksum = 62585)) ns3::Icmpv6OptionLinkLayerAddress (( type = 1 length = 1 L2 Address = 00-06-00:00:00:00:00:0e)) ns3::EthernetTrailer (fcs=0)
r 1.167e-06 /NodeList/1/DeviceList/2/$ns3::CsmaNetDevice/MacRx ns3::EthernetHeader ( length/type=0x86dd, source=00:00:00:00:00:0e, destination=33:33:ff:00:00:0e) ns3::Ipv6Header ((Version 6 Traffic class 0x0 DSCP Default Flow Label 0x0 Payload Length 32 Next Header 58 Hop Limit 255 ):: > ff02::1:ff00:e) ns3::Icmpv6NS (( type = 135 (NS) code = 0 target = fe80::200:ff:fe00:e checksum = 62585)) ns3::Icmpv6OptionLinkLayerAddress (( type = 1 length = 1 L2 Address = 00-06-00:00:00:00:00:0e)) ns3::EthernetTrailer (fcs=0)
r 1.167e-06 /NodeList/2/DeviceList/2/$ns3::CsmaNetDevice/MacRx ns3::EthernetHeader ( length/type=0x86dd, source=00:00:00:00:00:0e, destination=33:33:ff:00:00:0e) ns3::Ipv6Header ((Version 6 Traffic class 0x0 DSCP Default Flow Label 0x0 Payload Length 32 Next Header 58 Hop Limit 255 ):: > ff02::1:ff00:e) ns3::Icmpv6NS (( type = 135 (NS) code = 0 target = fe80::200:ff:fe00:e checksum = 62585)) ns3::Icmpv6OptionLinkLayerAddress (( type = 1 length = 1 L2 Address = 00-06-00:00:00:00:00:0e)) ns3::EthernetTrailer (fcs=0)
r 1.167e-06 /NodeList/4/DeviceList/2/$ns3::CsmaNetDevice/MacRx ns3::EthernetHeader ( length/type=0x86dd, source=00:00:00:00:00:0e, destination=33:33:ff:00:00:0e) ns3::Ipv6Header ((Version 6 Traffic class 0x0 DSCP Default Flow Label 0x0 Payload Length 32 Next Header 58 Hop Limit 255 ):: > ff02::1:ff00:e) ns3::Icmpv6NS (( type = 135 (NS) code = 0 target = fe80::200:ff:fe00:e checksum = 62585)) ns3::Icmpv6OptionLinkLayerAddress (( type = 1 length = 1 L2 Address = 00-06-00:00:00:00:00:0e)) ns3::EthernetTrailer (fcs=0)
r 1.167e-06 /NodeList/5/DeviceList/2/$ns3::CsmaNetDevice/MacRx ns3::EthernetHeader ( length/type=0x86dd, source=00:00:00:00:00:0e, destination=33:33:ff:00:00:0e) ns3::Ipv6Header ((Version 6 Traffic class 0x0 DSCP Default Flow Label 0x0 Payload Length 32 Next Header 58 Hop Limit 255 ):: > ff02::1:ff00:e) ns3::Icmpv6NS (( type = 135 (NS) code = 0 target = fe80::200:ff:fe00:e checksum = 62585)) ns3::Icmpv6OptionLinkLayerAddress (( type = 1 length = 1 L2 Address = 00-06-00:00:00:00:00:0e)) ns3::EthernetTrailer (fcs=0)
r 1.167e-06 /NodeList/6/DeviceList/2/$ns3::CsmaNetDevice/MacRx ns3::EthernetHeader ( length/type=0x86dd, source=00:00:00:00:00:0e, destination=33:33:ff:00:00:0e) ns3::Ipv6Header ((Version 6 Traffic class 0x0 DSCP Default Flow Label 0x0 Payload Length 32 Next Header 58 Hop Limit 255 ):: > ff02::1:ff00:e) ns3::Icmpv6NS (( type = 135 (NS) code = 0 target = fe80::200:ff:fe00:e checksum = 62585)) ns3::Icmpv6OptionLinkLayerAddress (( type = 1 length = 1 L2 Address = 00-06-00:00:00:00:00:0e)) ns3::EthernetTrailer (fcs=0)
r 1.167e-06 /NodeList/7/DeviceList/2/$ns3::CsmaNetDevice/MacRx ns3::EthernetHeader ( length/type=0x86dd, source=00:00:00:00:00:0e, destination=33:33:ff:00:00:0e) ns3::Ipv6Header ((Version 6 Traffic class 0x0 DSCP Default Flow Label 0x0 Payload Length 32 Next Header 58 Hop Limit 255 ):: > ff02::1:ff00:e) ns3::Icmpv6NS (( type = 135 (NS) code = 0 target = fe80::200:ff:fe00:e checksum = 62585)) ns3::Icmpv6OptionLinkLayerAddress (( type = 1 length = 1 L2 Address = 00-06-00:00:00:00:00:0e)) ns3::EthernetTrailer (fcs=0)
r 1.167e-06 /NodeList/8/DeviceList/2/$ns3::CsmaNetDevice/MacRx ns3::EthernetHeader ( length/type=0x86dd, source=00:00:00:00:00:0e, destination=33:33:ff:00:00:0e) ns3::Ipv6Header ((Version 6 Traffic class 0x0 DSCP Default Flow Label 0x0 Payload Length 32 Next Header 58 Hop Limit 255 ):: > ff02::1:ff00:e) ns3::Icmpv6NS (( type = 135 (NS) code = 0 target = fe80::200:ff:fe00:e checksum = 62585)) ns3::Icmpv6OptionLinkLayerAddress (( type = 1 length = 1 L2 Address = 00-06-00:00:00:00:00:0e)) ns3::EthernetTrailer (fcs=0)
r 1.167e-06 /NodeList/9/DeviceList/2/$ns3::CsmaNetDevice/MacRx ns3::EthernetHeader ( length/type=0x86dd, source=00:00:00:00:00:0e, destination=33:33:ff:00:00:0e) ns3::Ipv6Header ((Version 6 Traffic class 0x0 DSCP Default Flow Label 0x0 Payload Length 32 Next Header 58 Hop Limit 255 ):: > ff02::1:ff00:e) ns3::Icmpv6NS (( type = 135 (NS) code = 0 target = fe80::200:ff:fe00:e checksum = 62585)) ns3::Icmpv6OptionLinkLayerAddress (( type = 1 length = 1 L2 Address = 00-06-00:00:00:00:00:0e)) ns3::EthernetTrailer (fcs=0)
+ 0.001 /NodeList/1/DeviceList/2/$ns3::CsmaNetDevice/TxQueue/Enqueue ns3::EthernetHeader ( length/type=0x86dd, source=00:00:00:00:00:0c, destination=33:33:ff:00:00:0c) ns3::Ipv6Header ((Version 6 Traffic class 0x0 DSCP Default Flow Label 0x0 Payload Length 32 Next Header 58 Hop Limit 255 ):: > ff02::1:ff00:c) ns3::Icmpv6NS (( type = 135 (NS) code = 0 target = fe80::200:ff:fe00:c checksum = 64121)) ns3::Icmpv6OptionLinkLayerAddress (( type = 1 length = 1 L2 Address = 00-06-00:00:00:00:00:0c)) ns3::EthernetTrailer (fcs=0)
- 0.001 /NodeList/1/DeviceList/2/$ns3::CsmaNetDevice/TxQueue/Dequeue ns3::EthernetHeader ( length/type=0x86dd, source=00:00:00:00:00:0c, destination=33:33:ff:00:00:0c) ns3::Ipv6Header ((Version 6 Traffic class 0x0 DSCP Default Flow Label 0x0 Payload Length 32 Next Header 58 Hop Limit 255 ):: > ff02::1:ff00:c) ns3::Icmpv6NS (( type = 135 (NS) code = 0 target = fe80::200:ff:fe00:c checksum = 64121)) ns3::Icmpv6OptionLinkLayerAddress (( type = 1 length = 1 L2 Address = 00-06-00:00:00:00:00:0c)) ns3::EthernetTrailer (fcs=0)
+ 0.001 /NodeList/1/DeviceList/2/$ns3::CsmaNetDevice/TxQueue/Enqueue ns3::EthernetHeader ( length/type=0x86dd, source=00:00:00:00:00:0c, destination=33:33:ff:00:00:0c) ns3::Ipv6Header ((Version 6 Traffic class 0x0 DSCP Default Flow Label 0x0 Payload Length 32 Next Header 58 Hop Limit 255 ):: > ff02::1:ff00:c) ns3::Icmpv6NS (( type = 135 (NS) code = 0 target = 2001:1::200:ff:fe00:c checksum = 31064)) ns3::Icmpv6OptionLinkLayerAddress (( type = 1 length = 1 L2 Address = 00-06-00:00:00:00:00:0c)) ns3::EthernetTrailer (fcs=0)
+ 0.001 /NodeList/2/DeviceList/2/$ns3::CsmaNetDevice/TxQueue/Enqueue ns3::EthernetHeader ( length/type=0x86dd, source=00:00:00:00:00:0d, destination=33:33:ff:00:00:0d) ns3::Ipv6Header ((Version 6 Traffic class 0x0 DSCP Default Flow Label 0x0 Payload Length 32 Next Header 58 Hop Limit 255 ):: > ff02::1:ff00:d) ns3::Icmpv6NS (( type = 135 (NS) code = 0 target = 2001:1::200:ff:fe00:d checksum = 30296)) ns3::Icmpv6OptionLinkLayerAddress (( type = 1 length = 1 L2 Address = 00-06-00:00:00:00:00:0d)) ns3::EthernetTrailer (fcs=0)
- 0.001 /NodeList/2/DeviceList/2/$ns3::CsmaNetDevice/TxQueue/Dequeue ns3::EthernetHeader ( length/type=0x86dd, source=00:00:00:00:00:0d, destination=33:33:ff:00:00:0d) ns3::Ipv6Header ((Version 6 Traffic class 0x0 DSCP Default Flow Label 0x0 Payload Length 32 Next Header 58 Hop Limit 255 ):: > ff02::1:ff00:d) ns3::Icmpv6NS (( type = 135 (NS) code = 0 target = 2001:1::200:ff:fe00:d checksum = 30296)) ns3::Icmpv6OptionLinkLayerAddress (( type = 1 length = 1 L2 Address = 00-06-00:00:00:00:00:0d)) ns3::EthernetTrailer (fcs=0)
+ 0.001 /NodeList/6/DeviceList/2/$ns3::CsmaNetDevice/TxQueue/Enqueue ns3::EthernetHeader ( length/type=0x86dd, source=00:00:00:00:00:11, destination=33:33:ff:00:00:11) ns3::Ipv6Header ((Version 6 Traffic class 0x0 DSCP Default Flow Label 0x0 Payload Length 32 Next Header 58 Hop Limit 255 ):: > ff02::1:ff00:11) ns3::Icmpv6NS (( type = 135 (NS) code = 0 target = fe80::200:ff:fe00:11 checksum = 60281)) ns3::Icmpv6OptionLinkLayerAddress (( type = 1 length = 1 L2 Address = 00-06-00:00:00:00:00:11)) ns3::EthernetTrailer (fcs=0)
- 0.001 /NodeList/6/DeviceList/2/$ns3::CsmaNetDevice/TxQueue/Dequeue ns3::EthernetHeader ( length/type=0x86dd, source=00:00:00:00:00:11, destination=33:33:ff:00:00:11) ns3::Ipv6Header ((Version 6 Traffic class 0x0 DSCP Default Flow Label 0x0 Payload Length 32 Next Header 58 Hop Limit 255 ):: > ff02::1:ff00:11) ns3::Icmpv6NS (( type = 135 (NS) code = 0 target = fe80::200:ff:fe00:11 checksum = 60281)) ns3::Icmpv6OptionLinkLayerAddress (( type = 1 length = 1 L2 Address = 00-06-00:00:00:00:00:11)) ns3::EthernetTrailer (fcs=0)
r 0.00100017 /NodeList/0/DeviceList/2/$ns3::CsmaNetDevice/MacRx ns3::EthernetHeader ( length/type=0x86dd, source=00:00:00:00:00:0c, destination=33:33:ff:00:00:0c) ns3::Ipv6Header ((Version 6 Traffic class 0x0 DSCP Default Flow Label 0x0 Payload Length 32 Next Header 58 Hop Limit 255 ):: > ff02::1:ff00:c) ns3::Icmpv6NS (( type = 135 (NS) code = 0 target = fe80::200:ff:fe00:c checksum = 64121)) ns3::Icmpv6OptionLinkLayerAddress (( type = 1 length = 1 L2 Address = 00-06-00:00:00:00:00:0c)) ns3::EthernetTrailer (fcs=0)
r 0.00100017 /NodeList/2/DeviceList/2/$ns3::CsmaNetDevice/MacRx ns3::EthernetHeader ( length/type=0x86dd, source=00:00:00:00:00:0c, destination=33:33:ff:00:00:0c) ns3::Ipv6Header ((Version 6 Traffic class 0x0 DSCP Default Flow Label 0x0 Payload Length 32 Next Header 58 Hop Limit 255 ):: > ff02::1:ff00:c) ns3::Icmpv6NS (( type = 135 (NS) code = 0 target = fe80::200:ff:fe00:c checksum = 64121)) ns3::Icmpv6OptionLinkLayerAddress (( type = 1 length = 1 L2 Address = 00-06-00:00:00:00:00:0c)) ns3::EthernetTrailer (fcs=0)
r 0.00100017 /NodeList/3/DeviceList/2/$ns3::CsmaNetDevice/MacRx ns3::EthernetHeader ( length/type=0x86dd, source=00:00:00:00:00:0c, destination=33:33:ff:00:00:0c) ns3::Ipv6Header ((Version 6 Traffic class 0x0 DSCP Default Flow Label 0x0 Payload Length 32 Next Header 58 Hop Limit 255 ):: > ff02::1:ff00:c) ns3::Icmpv6NS (( type = 135 (NS) code = 0 target = fe80::200:ff:fe00:c checksum = 64121)) ns3::Icmpv6OptionLinkLayerAddress (( type = 1 length = 1 L2 Address = 00-06-00:00:00:00:00:0c)) ns3::EthernetTrailer (fcs=0)
r 0.00100017 /NodeList/4/DeviceList/2/$ns3::CsmaNetDevice/MacRx ns3::EthernetHeader ( length/type=0x86dd, source=00:00:00:00:00:0c, destination=33:33:ff:00:00:0c) ns3::Ipv6Header ((Version 6 Traffic class 0x0 DSCP Default Flow Label 0x0 Payload Length 32 Next Header 58 Hop Limit 255 ):: > ff02::1:ff00:c) ns3::Icmpv6NS (( type = 135 (NS) code = 0 target = fe80::200:ff:fe00:c checksum = 64121)) ns3::Icmpv6OptionLinkLayerAddress (( type = 1 length = 1 L2 Address = 00-06-00:00:00:00:00:0c)) ns3::EthernetTrailer (fcs=0)
r 0.00100017 /NodeList/5/DeviceList/2/$ns3::CsmaNetDevice/MacRx ns3::EthernetHeader ( length/type=0x86dd, source=00:00:00:00:00:0c, destination=33:33:ff:00:00:0c) ns3::Ipv6Header ((Version 6 Traffic class 0x0 DSCP Default Flow Label 0x0 Payload Length 32 Next Header 58 Hop Limit 255 ):: > ff02::1:ff00:c) ns3::Icmpv6NS (( type = 135 (NS) code = 0 target = fe80::200:ff:fe00:c checksum = 64121)) ns3::Icmpv6OptionLinkLayerAddress (( type = 1 length = 1 L2 Address = 00-06-00:00:00:00:00:0c)) ns3::EthernetTrailer (fcs=0)
r 0.00100017 /NodeList/6/DeviceList/2/$ns3::CsmaNetDevice/MacRx ns3::EthernetHeader ( length/type=0x86dd, source=00:00:00:00:00:0c, destination=33:33:ff:00:00:0c) ns3::Ipv6Header ((Version 6 Traffic class 0x0 DSCP Default Flow Label 0x0 Payload Length 32 Next Header 58 Hop Limit 255 ):: > ff02::1:ff00:c) ns3::Icmpv6NS (( type = 135 (NS) code = 0 target = fe80::200:ff:fe00:c checksum = 64121)) ns3::Icmpv6OptionLinkLayerAddress (( type = 1 length = 1 L2 Address = 00-06-00:00:00:00:00:0c)) ns3::EthernetTrailer (fcs=0)
r 0.00100017 /NodeList/7/DeviceList/2/$ns3::CsmaNetDevice/MacRx ns3::EthernetHeader ( length/type=0x86dd, source=00:00:00:00:00:0c, destination=33:33:ff:00:00:0c) ns3::Ipv6Header ((Version 6 Traffic class 0x0 DSCP Default Flow Label 0x0 Payload Length 32 Next Header 58 Hop Limit 255 ):: > ff02::1:ff00:c) ns3::Icmpv6NS (( type = 135 (NS) code = 0 target = fe80::200:ff:fe00:c checksum = 64121)) ns3::Icmpv6OptionLinkLayerAddress (( type = 1 length = 1 L2 Address = 00-06-00:00:00:00:00:0c)) ns3::EthernetTrailer (fcs=0)
r 0.00100017 /NodeList/8/DeviceList/2/$ns3::CsmaNetDevice/MacRx ns3::EthernetHeader ( length/type=0x86dd, source=00:00:00:00:00:0c, destination=33:33:ff:00:00:0c) ns3::Ipv6Header ((Version 6 Traffic class 0x0 DSCP Default Flow Label 0x0 Payload Length 32 Next Header 58 Hop Limit 255 ):: > ff02::1:ff00:c) ns3::Icmpv6NS (( type = 135 (NS) code = 0 target = fe80::200:ff:fe00:c checksum = 64121)) ns3::Icmpv6OptionLinkLayerAddress (( type = 1 length = 1 L2 Address = 00-06-00:00:00:00:00:0c)) ns3::EthernetTrailer (fcs=0)
r 0.00100017 /NodeList/9/DeviceList/2/$ns3::CsmaNetDevice/MacRx ns3::EthernetHeader ( length/type=0x86dd, source=00:00:00:00:00:0c, destination=33:33:ff:00:00:0c) ns3::Ipv6Header ((Version 6 Traffic class 0x0 DSCP Default Flow Label 0x0 Payload Length 32 Next Header 58 Hop Limit 255 ):: > ff02::1:ff00:c) ns3::Icmpv6NS (( type = 135 (NS) code = 0 target = fe80::200:ff:fe00:c checksum = 64121)) ns3::Icmpv6OptionLinkLayerAddress (( type = 1 length = 1 L2 Address = 00-06-00:00:00:00:00:0c)) ns3::EthernetTrailer (fcs=0)
- 0.00100019 /NodeList/1/DeviceList/2/$ns3::CsmaNetDevice/TxQueue/Dequeue ns3::EthernetHeader ( length/type=0x86dd, source=00:00:00:00:00:0c, destination=33:33:ff:00:00:0c) ns3::Ipv6Header ((Version 6 Traffic class 0x0 DSCP Default Flow Label 0x0 Payload Length 32 Next Header 58 Hop Limit 255 ):: > ff02::1:ff00:c) ns3::Icmpv6NS (( type = 135 (NS) code = 0 target = 2001:1::200:ff:fe00:c checksum = 31064)) ns3::Icmpv6OptionLinkLayerAddress (( type = 1 length = 1 L2 Address = 00-06-00:00:00:00:00:0c)) ns3::EthernetTrailer (fcs=0)
r 0.00100036 /NodeList/0/DeviceList/2/$ns3::CsmaNetDevice/MacRx ns3::EthernetHeader ( length/type=0x86dd, source=00:00:00:00:00:0c, destination=33:33:ff:00:00:0c) ns3::Ipv6Header ((Version 6 Traffic class 0x0 DSCP Default Flow Label 0x0 Payload Length 32 Next Header 58 Hop Limit 255 ):: > ff02::1:ff00:c) ns3::Icmpv6NS (( type = 135 (NS) code = 0 target = 2001:1::200:ff:fe00:c checksum = 31064)) ns3::Icmpv6OptionLinkLayerAddress (( type = 1 length = 1 L2 Address = 00-06-00:00:00:00:00:0c)) ns3::EthernetTrailer (fcs=0)
r 0.00100036 /NodeList/2/DeviceList/2/$ns3::CsmaNetDevice/MacRx ns3::EthernetHeader ( length/type=0x86dd, source=00:00:00:00:00:0c, destination=33:33:ff:00:00:0c) ns3::Ipv6Header ((Version 6 Traffic class 0x0 DSCP Default Flow Label 0x0 Payload Length 32 Next Header 58 Hop Limit 255 ):: > ff02::1:ff00:c) ns3::Icmpv6NS (( type = 135 (NS) code = 0 target = 2001:1::200:ff:fe00:c checksum = 31064)) ns3::Icmpv6OptionLinkLayerAddress (( type = 1 length = 1 L2 Address = 00-06-00:00:00:00:00:0c)) ns3::EthernetTrailer (fcs=0)
r 0.00100036 /NodeList/3/DeviceList/2/$ns3::CsmaNetDevice/MacRx ns3::EthernetHeader ( length/type=0x86dd, source=00:00:00:00:00:0c, destination=33:33:ff:00:00:0c) ns3::Ipv6Header ((Version 6 Traffic class 0x0 DSCP Default Flow Label 0x0 Payload Length 32 Next Header 58 Hop Limit 255 ):: > ff02::1:ff00:c) ns3::Icmpv6NS (( type = 135 (NS) code = 0 target = 2001:1::200:ff:fe00:c checksum = 31064)) ns3::Icmpv6OptionLinkLayerAddress (( type = 1 length = 1 L2 Address = 00-06-00:00:00:00:00:0c)) ns3::EthernetTrailer (fcs=0)
r 0.00100036 /NodeList/4/DeviceList/2/$ns3::CsmaNetDevice/MacRx ns3::EthernetHeader ( length/type=0x86dd, source=00:00:00:00:00:0c, destination=33:33:ff:00:00:0c) ns3::Ipv6Header ((Version 6 Traffic class 0x0 DSCP Default Flow Label 0x0 Payload Length 32 Next Header 58 Hop Limit 255 ):: > ff02::1:ff00:c) ns3::Icmpv6NS (( type = 135 (NS) code = 0 target = 2001:1::200:ff:fe00:c checksum = 31064)) ns3::Icmpv6OptionLinkLayerAddress (( type = 1 length = 1 L2 Address = 00-06-00:00:00:00:00:0c)) ns3::EthernetTrailer (fcs=0)
r 0.00100036 /NodeList/5/DeviceList/2/$ns3::CsmaNetDevice/MacRx ns3::EthernetHeader ( length/type=0x86dd, source=00:00:00:00:00:0c, destination=33:33:ff:00:00:0c) ns3::Ipv6Header ((Version 6 Traffic class 0x0 DSCP Default Flow Label 0x0 Payload Length 32 Next Header 58 Hop Limit 255 ):: > ff02::1:ff00:c) ns3::Icmpv6NS (( type = 135 (NS) code = 0 target = 2001:1::200:ff:fe00:c checksum = 31064)) ns3::Icmpv6OptionLinkLayerAddress (( type = 1 length = 1 L2 Address = 00-06-00:00:00:00:00:0c)) ns3::EthernetTrailer (fcs=0)
r 0.00100036 /NodeList/6/DeviceList/2/$ns3::CsmaNetDevice/MacRx ns3::EthernetHeader ( length/type=0x86dd, source=00:00:00:00:00:0c, destination=33:33:ff:00:00:0c) ns3::Ipv6Header ((Version 6 Traffic class 0x0 DSCP Default Flow Label 0x0 Payload Length 32 Next Header 58 Hop Limit 255 ):: > ff02::1:ff00:c) ns3::Icmpv6NS (( type = 135 (NS) code = 0 target = 2001:1::200:ff:fe00:c checksum = 31064)) ns3::Icmpv6OptionLinkLayerAddress (( type = 1 length = 1 L2 Address = 00-06-00:00:00:00:00:0c)) ns3::EthernetTrailer (fcs=0)
r 0.00100036 /NodeList/7/DeviceList/2/$ns3::CsmaNetDevice/MacRx ns3::EthernetHeader ( length/type=0x86dd, source=00:00:00:00:00:0c, destination=33:33:ff:00:00:0c) ns3::Ipv6Header ((Version 6 Traffic class 0x0 DSCP Default Flow Label 0x0 Payload Length 32 Next Header 58 Hop Limit 255 ):: > ff02::1:ff00:c) ns3::Icmpv6NS (( type = 135 (NS) code = 0 target = 2001:1::200:ff:fe00:c checksum = 31064)) ns3::Icmpv6OptionLinkLayerAddress (( type = 1 length = 1 L2 Address = 00-06-00:00:00:00:00:0c)) ns3::EthernetTrailer (fcs=0)
r 0.00100036 /NodeList/8/DeviceList/2/$ns3::CsmaNetDevice/MacRx ns3::EthernetHeader ( length/type=0x86dd, source=00:00:00:00:00:0c, destination=33:33:ff:00:00:0c) ns3::Ipv6Header ((Version 6 Traffic class 0x0 DSCP Default Flow Label 0x0 Payload Length 32 Next Header 58 Hop Limit 255 ):: > ff02::1:ff00:c) ns3::Icmpv6NS (( type = 135 (NS) code = 0 target = 2001:1::200:ff:fe00:c checksum = 31064)) ns3::Icmpv6OptionLinkLayerAddress (( type = 1 length = 1 L2 Address = 00-06-00:00:00:00:00:0c)) ns3::EthernetTrailer (fcs=0)
r 0.00100036 /NodeList/9/DeviceList/2/$ns3::CsmaNetDevice/MacRx ns3::EthernetHeader ( length/type=0x86dd, source=00:00:00:00:00:0c, destination=33:33:ff:00:00:0c) ns3::Ipv6Header ((Version 6 Traffic class 0x0 DSCP Default Flow Label 0x0 Payload Length 32 Next Header 58 Hop Limit 255 ):: > ff02::1:ff00:c) ns3::Icmpv6NS (( type = 135 (NS) code = 0 target = 2001:1::200:ff:fe00:c checksum = 31064)) ns3::Icmpv6OptionLinkLayerAddress (( type = 1 length = 1 L2 Address = 00-06-00:00:00:00:00:0c)) ns3::EthernetTrailer (fcs=0)
r 0.00100117 /NodeList/0/DeviceList/2/$ns3::CsmaNetDevice/MacRx ns3::EthernetHeader ( length/type=0x86dd, source=00:00:00:00:00:0d, destination=33:33:ff:00:00:0d) ns3::Ipv6Header ((Version 6 Traffic class 0x0 DSCP Default Flow Label 0x0 Payload Length 32 Next Header 58 Hop Limit 255 ):: > ff02::1:ff00:d) ns3::Icmpv6NS (( type = 135 (NS) code = 0 target = 2001:1::200:ff:fe00:d checksum = 30296)) ns3::Icmpv6OptionLinkLayerAddress (( type = 1 length = 1 L2 Address = 00-06-00:00:00:00:00:0d)) ns3::EthernetTrailer (fcs=0)
r 0.00100117 /NodeList/1/DeviceList/2/$ns3::CsmaNetDevice/MacRx ns3::EthernetHeader ( length/type=0x86dd, source=00:00:00:00:00:0d, destination=33:33:ff:00:00:0d) ns3::Ipv6Header ((Version 6 Traffic class 0x0 DSCP Default Flow Label 0x0 Payload Length 32 Next Header 58 Hop Limit 255 ):: > ff02::1:ff00:d) ns3::Icmpv6NS (( type = 135 (NS) code = 0 target = 2001:1::200:ff:fe00:d checksum = 30296)) ns3::Icmpv6OptionLinkLayerAddress (( type = 1 length = 1 L2 Address = 00-06-00:00:00:00:00:0d)) ns3::EthernetTrailer (fcs=0)
r 0.00100117 /NodeList/3/DeviceList/2/$ns3::CsmaNetDevice/MacRx ns3::EthernetHeader ( length/type=0x86dd, source=00:00:00:00:00:0d, destination=33:33:ff:00:00:0d) ns3::Ipv6Header ((Version 6 Traffic class 0x0 DSCP Default Flow Label 0x0 Payload Length 32 Next Header 58 Hop Limit 255 ):: > ff02::1:ff00:d) ns3::Icmpv6NS (( type = 135 (NS) code = 0 target = 2001:1::200:ff:fe00:d checksum = 30296)) ns3::Icmpv6OptionLinkLayerAddress (( type = 1 length = 1 L2 Address = 00-06-00:00:00:00:00:0d)) ns3::EthernetTrailer (fcs=0)
r 0.00100117 /NodeList/4/DeviceList/2/$ns3::CsmaNetDevice/MacRx ns3::EthernetHeader ( length/type=0x86dd, source=00:00:00:00:00:0d, destination=33:33:ff:00:00:0d) ns3::Ipv6Header ((Version 6 Traffic class 0x0 DSCP Default Flow Label 0x0 Payload Length 32 Next Header 58 Hop Limit 255 ):: > ff02::1:ff00:d) ns3::Icmpv6NS (( type = 135 (NS) code = 0 target = 2001:1::200:ff:fe00:d checksum = 30296)) ns3::Icmpv6OptionLinkLayerAddress (( type = 1 length = 1 L2 Address = 00-06-00:00:00:00:00:0d)) ns3::EthernetTrailer (fcs=0)
r 0.00100117 /NodeList/5/DeviceList/2/$ns3::CsmaNetDevice/MacRx ns3::EthernetHeader ( length/type=0x86dd, source=00:00:00:00:00:0d, destination=33:33:ff:00:00:0d) ns3::Ipv6Header ((Version 6 Traffic class 0x0 DSCP Default Flow Label 0x0 Payload Length 32 Next Header 58 Hop Limit 255 ):: > ff02::1:ff00:d) ns3::Icmpv6NS (( type = 135 (NS) code = 0 target = 2001:1::200:ff:fe00:d checksum = 30296)) ns3::Icmpv6OptionLinkLayerAddress (( type = 1 length = 1 L2 Address = 00-06-00:00:00:00:00:0d)) ns3::EthernetTrailer (fcs=0)
r 0.00100117 /NodeList/6/DeviceList/2/$ns3::CsmaNetDevice/MacRx ns3::EthernetHeader ( length/type=0x86dd, source=00:00:00:00:00:0d, destination=33:33:ff:00:00:0d) ns3::Ipv6Header ((Version 6 Traffic class 0x0 DSCP Default Flow Label 0x0 Payload Length 32 Next Header 58 Hop Limit 255 ):: > ff02::1:ff00:d) ns3::Icmpv6NS (( type = 135 (NS) code = 0 target = 2001:1::200:ff:fe00:d checksum = 30296)) ns3::Icmpv6OptionLinkLayerAddress (( type = 1 length = 1 L2 Address = 00-06-00:00:00:00:00:0d)) ns3::EthernetTrailer (fcs=0)
r 0.00100117 /NodeList/7/DeviceList/2/$ns3::CsmaNetDevice/MacRx ns3::EthernetHeader ( length/type=0x86dd, source=00:00:00:00:00:0d, destination=33:33:ff:00:00:0d) ns3::Ipv6Header ((Version 6 Traffic class 0x0 DSCP Default Flow Label 0x0 Payload Length 32 Next Header 58 Hop Limit 255 ):: > ff02::1:ff00:d) ns3::Icmpv6NS (( type = 135 (NS) code = 0 target = 2001:1::200:ff:fe00:d checksum = 30296)) ns3::Icmpv6OptionLinkLayerAddress (( type = 1 length = 1 L2 Address = 00-06-00:00:00:00:00:0d)) ns3::EthernetTrailer (fcs=0)
r 0.00100117 /NodeList/8/DeviceList/2/$ns3::CsmaNetDevice/MacRx ns3::EthernetHeader ( length/type=0x86dd, source=00:00:00:00:00:0d, destination=33:33:ff:00:00:0d) ns3::Ipv6Header ((Version 6 Traffic class 0x0 DSCP Default Flow Label 0x0 Payload Length 32 Next Header 58 Hop Limit 255 ):: > ff02::1:ff00:d) ns3::Icmpv6NS (( type = 135 (NS) code = 0 target = 2001:1::200:ff:fe00:d checksum = 30296)) ns3::Icmpv6OptionLinkLayerAddress (( type = 1 length = 1 L2 Address = 00-06-00:00:00:00:00:0d)) ns3::EthernetTrailer (fcs=0)
r 0.00100117 /NodeList/9/DeviceList/2/$ns3::CsmaNetDevice/MacRx ns3::EthernetHeader ( length/type=0x86dd, source=00:00:00:00:00:0d, destination=33:33:ff:00:00:0d) ns3::Ipv6Header ((Version 6 Traffic class 0x0 DSCP Default Flow Label 0x0 Payload Length 32 Next Header 58 Hop Limit 255 ):: > ff02::1:ff00:d) ns3::Icmpv6NS (( type = 135 (NS) code = 0 target = 2001:1::200:ff:fe00:d checksum = 30296)) ns3::Icmpv6OptionLinkLayerAddress (( type = 1 length = 1 L2 Address = 00-06-00:00:00:00:00:0d)) ns3::EthernetTrailer (fcs=0)